 Gaussian 09, Revision B.01,
 Gaussian 09:  EM64L-G09RevB.01 12-Aug-2010

 ----------------------------------------------------------------------
 #MaxDisk=2600gb #B3LyP/6-311g(2d,d,p) fopt freq gfinput iop(6/7=3) tes
 t
 ----------------------------------------------------------------------

 -----------------
 prueba para etano
 -----------------
 Symbolic Z-matrix:
 Charge =  0 Multiplicity = 1

 SCF Done:  E(RB3LYP) =  -79.8523632694     A.U. after    9 cycles
 SCF Done:  E(RB3LYP) =  -79.8561885449     A.U. after    8 cycles
 SCF Done:  E(RB3LYP) =  -79.8562536775     A.U. after    6 cycles
 SCF Done:  E(RB3LYP) =  -79.8562597146     A.U. after    6 cycles
 Optimization completed.
    -- Stationary point found.
 Normal termination of Gaussian 09 at Sat Apr 30 16:22:16 2022.

 ----------------------------------------------------------------------
 #N Geom=AllCheck Guess=TCheck SCRF=Check Test GenChk RB3LYP/6-311G(2d,
 d,p) Freq
 ----------------------------------------------------------------------

 prueba para etano
 -----------------
 Redundant internal coordinates taken from checkpoint file:
 etano.chk
 Charge =  0 Multiplicity = 1

                         Standard orientation:
 ---------------------------------------------------------------------
 Center     Atomic      Atomic             Coordinates (Angstroms)
 Number     Number       Type             X           Y           Z
 ---------------------------------------------------------------------
      1          6           0        0.000000    0.000000    0.765408
      2          6           0        0.000000    0.000000   -0.765408
      3          1           0        0.000000    1.018673    1.163167
      4          1           0        0.882197   -0.509337    1.163167
      5          1           0       -0.882197   -0.509337    1.163167
      6          1           0        0.000000   -1.018673   -1.163167
      7          1           0       -0.882197    0.509337   -1.163167
      8          1           0        0.882197    0.509337   -1.163167
 ---------------------------------------------------------------------

 SCF Done:  E(RB3LYP) =  -79.8562597146     A.U. after    1 cycles

 The electronic state is 1-A1G.
 Alpha  occ. eigenvalues --  -10.15810 -10.15788  -0.75359  -0.61745  -0.43619
 Alpha  occ. eigenvalues --   -0.43619  -0.37013  -0.34555  -0.34555
 Alpha virt. eigenvalues --    0.04796   0.08737   0.10355   0.10355   0.13908
 Alpha virt. eigenvalues --    0.13908   0.22490   0.29821   0.29821   0.33045
 Alpha virt. eigenvalues --    0.33132   0.33132   0.53156   0.56840   0.58306

 Mulliken atomic charges:
              1
     1  C   -0.317444
     2  C   -0.317444
     3  H    0.105815
     4  H    0.105815
     5  H    0.105815
     6  H    0.105815
     7  H    0.105815
     8  H    0.105815
 Sum of Mulliken atomic charges =   0.00000

 Dipole moment (field-independent basis, Debye):
    X=              0.0000    Y=              0.0000    Z=              0.0000  Tot=              0.0000
 Quadrupole moment (field-independent basis, Debye-Ang):
   XX=            -15.0165   YY=            -15.0165   ZZ=            -15.6538
   XY=              0.0000   XZ=              0.0000   YZ=              0.0000

  Exact polarizability:  24.558   0.000  24.558   0.000   0.000  27.136
 Approx polarizability:  32.276   0.000  32.276   0.000   0.000  31.766

                     1                      2                      3
                    A1U                    EU                     EU
 Frequencies --   308.2155               827.5468               827.5472
 Red. masses --     1.0078                 1.0582                 1.0582
 Frc consts  --     0.0564                 0.4270                 0.4270
 IR Inten    --     0.0000                 4.3833                 4.3821

                     4                      5                      6
                    A1G                    EG                     EG
 Frequencies --   996.7178              1219.1166              1219.1183
 Red. masses --     3.3449                 1.4683                 1.4683
 Frc consts  --     1.9578                 1.2857                 1.2857
 IR Inten    --     0.0000                 0.0000                 0.0000

                     7                      8                      9
                    A2U                    A1G                    EG
 Frequencies --  1408.6899              1424.5451              1504.9059
 Red. masses --     1.1985                 1.2445                 1.0180
 Frc consts  --     1.4013                 1.4879                 1.3584
 IR Inten    --     1.6308                 0.0000                 0.0000

                    10                     11                     12
                    EG                     EU                     EU
 Frequencies --  1504.9064              1507.5729              1507.5744
 Red. masses --     1.0180                 1.0618                 1.0618
 Frc consts  --     1.3584                 1.4219                 1.4219
 IR Inten    --     0.0000                10.2463                10.2493

                    13                     14                     15
                    A1G                    A2U                    EG
 Frequencies --  3025.4859              3026.1107              3072.0111
 Red. masses --     1.0360                 1.0339                 1.1014
 Frc consts  --     5.5871                 5.5784                 6.1238
 IR Inten    --     0.0000                63.1680                 0.0000

                    16                     17                     18
                    EG                     EU                     EU
 Frequencies --  3072.0111              3097.3348              3097.3364
 Red. masses --     1.1014                 1.1026                 1.1026
 Frc consts  --     6.1238                 6.2320                 6.2320
 IR Inten    --     0.0000                76.2949                76.2850

 - Thermochemistry -
 -------------------
 Temperature   298.150 Kelvin.  Pressure   1.00000 Atm.
 Atom     1 has atomic number  6 and mass  12.00000

 Molecular mass:    30.04695 amu.
 Principal axes and moments of inertia in atomic units:
                           1         2         3
     Eigenvalues --    22.40804  90.63038  90.63038
           X            0.00000   0.94868   0.31623
           Y            0.00000  -0.31623   0.94868
           Z            1.00000   0.00000   0.00000
 This molecule is a prolate symmetric top.
 Rotational symmetry number  6.
 Rotational temperatures (Kelvin)      3.86530     0.95568     0.95568
 Rotational constants (GHZ):          80.53990    19.91320    19.91320
 Zero-point vibrational energy     195270.9 (Joules/Mol)
                                   46.67087 (Kcal/Mol)
 Warning -- explicit consideration of   1 degrees of freedom as
           vibrations may cause significant error
 Vibrational temperatures:    443.45  1190.65  1190.65  1434.05  1754.03
          (Kelvin)           1754.04  2026.79  2049.60  2165.22  2165.22
                             2169.06  2169.06  4352.99  4353.89  4419.93
                             4419.93  4456.37  4456.37

 Zero-point correction=                           0.074375 (Hartree/Particle)
 Thermal correction to Energy=                    0.077860
 Thermal correction to Enthalpy=                  0.078805
 Thermal correction to Gibbs Free Energy=         0.052950
 Sum of electronic and zero-point Energies=            -79.781885
 Sum of electronic and thermal Energies=               -79.778399
 Sum of electronic and thermal Enthalpies=             -79.777455
 Sum of electronic and thermal Free Energies=          -79.803310

                     E (Thermal)             CV                S
                      KCal/Mol        Cal/Mol-Kelvin    Cal/Mol-Kelvin
 Total                   48.858             10.093             54.416
 Electronic               0.000              0.000              0.000
 Translational            0.889              2.981             36.134
 Rotational               0.889              2.981             16.288
 Vibrational             47.081              4.131              1.995
 Vibration     1          0.698              1.658              1.372

 Optimization completed.
    -- Stationary point found.
 Normal termination of Gaussian 09 at Sat Apr 30 16:22:19 2022.
