 Gaussian 09, Revision B.01,
 Gaussian 09:  EM64L-G09RevB.01 12-Aug-2010

 ----------------------------------------------------------------------
 #MaxDisk=2600gb #B3LyP/6-311g(2d,d,p) fopt freq gfinput iop(6/7=3) tes
 t
 ----------------------------------------------------------------------

 ----------------------
 prueba para metilamina
 ----------------------
 Symbolic Z-matrix:
 Charge =  0 Multiplicity = 1

 SCF Done:  E(RB3LYP) =  -95.8803925257     A.U. after   11 cycles
 SCF Done:  E(RB3LYP) =  -95.8879217885     A.U. after   10 cycles
 SCF Done:  E(RB3LYP) =  -95.8883887525     A.U. after   10 cycles
 SCF Done:  E(RB3LYP) =  -95.8884325154     A.U. after    8 cycles
 SCF Done:  E(RB3LYP) =  -95.8884390262     A.U. after    7 cycles
 Optimization completed.
    -- Stationary point found.
 Normal termination of Gaussian 09 at Sat Apr 30 16:37:23 2022.

 ----------------------------------------------------------------------
 #N Geom=AllCheck Guess=TCheck SCRF=Check Test GenChk RB3LYP/6-311G(2d,
 d,p) Freq
 ----------------------------------------------------------------------

 prueba para metilamina
 ----------------------
 Redundant internal coordinates taken from checkpoint file:
 metilamina.chk
 Charge =  0 Multiplicity = 1

                         Standard orientation:
 ---------------------------------------------------------------------
 Center     Atomic      Atomic             Coordinates (Angstroms)
 Number     Number       Type             X           Y           Z
 ---------------------------------------------------------------------
      1          6           0        0.706957    0.000024    0.017711
      2          7           0       -0.752544   -0.000019   -0.123659
      3          1           0       -1.146672   -0.812424    0.339754
      4          1           0        1.117625    0.879317   -0.485481
      5          1           0        1.083935   -0.001241    1.052877
      6          1           0        1.118427   -0.877670   -0.487795
      7          1           0       -1.147245    0.812013    0.339994
 ---------------------------------------------------------------------

 SCF Done:  E(RB3LYP) =  -95.8884390262     A.U. after    1 cycles

 The electronic state is 1-A.
 Alpha  occ. eigenvalues --  -14.28194 -10.18279  -0.87126  -0.65837  -0.48693
 Alpha  occ. eigenvalues --   -0.43790  -0.40089  -0.36742  -0.23441
 Alpha virt. eigenvalues --    0.04198   0.07866   0.09781   0.11791   0.13935
 Alpha virt. eigenvalues --    0.21427   0.30996   0.32994   0.37566   0.37996
 Alpha virt. eigenvalues --    0.48207   0.54475   0.58439   0.58640   0.63857

 Mulliken atomic charges:
              1
     1  C   -0.205483
     2  N   -0.471455
     3  H    0.187228
     4  H    0.109201
     5  H    0.084043
     6  H    0.109214
     7  H    0.187253
 Sum of Mulliken atomic charges =   0.00000

 Dipole moment (field-independent basis, Debye):
    X=              0.2024    Y=              0.0000    Z=              1.3612  Tot=              1.3762
 Quadrupole moment (field-independent basis, Debye-Ang):
   XX=            -13.8063   YY=            -12.6696   ZZ=            -15.2870
   XY=             -0.0005   XZ=             -2.0242   YZ=              0.0001

  Exact polarizability:  23.090  -0.003  20.948  -0.477   0.000  18.752
 Approx polarizability:  27.576  -0.005  27.557  -0.466   0.000  23.947

                     1                      2                      3
                     A                      A                      A
 Frequencies --   315.3278               849.8630               979.4395
 Red. masses --     1.0305                 1.2430                 1.0523
 Frc consts  --     0.0604                 0.5290                 0.5948
 IR Inten    --    38.8527               164.4733                 0.0140

                     4                      5                      6
                     A                      A                      A
 Frequencies --  1055.6941              1170.0808              1351.9533
 Red. masses --     3.3686                 1.3985                 1.3447
 Frc consts  --     2.2119                 1.1281                 1.4482
 IR Inten    --     8.0979                 7.0761                 0.2066

                     7                      8                      9
                     A                      A                      A
 Frequencies --  1461.0570              1496.9132              1518.9112
 Red. masses --     1.1597                 1.0546                 1.0331
 Frc consts  --     1.4585                 1.3923                 1.4043
 IR Inten    --     2.3097                 7.4143                 3.4195

                    10                     11                     12
                     A                      A                      A
 Frequencies --  1668.2518              2948.2336              3051.9037
 Red. masses --     1.0835                 1.0604                 1.0726
 Frc consts  --     1.7766                 5.4305                 5.8860
 IR Inten    --    22.9267               103.3640                41.5592

                    13                     14                     15
                     A                      A                      A
 Frequencies --  3087.1886              3489.3727              3563.8072
 Red. masses --     1.1029                 1.0491                 1.0929
 Frc consts  --     6.1934                 7.5263                 8.1784
 IR Inten    --    38.4959                 1.5186                 0.1008

 - Thermochemistry -
 -------------------
 Temperature   298.150 Kelvin.  Pressure   1.00000 Atm.
 Atom     1 has atomic number  6 and mass  12.00000

 Molecular mass:    31.04220 amu.
 Principal axes and moments of inertia in atomic units:
                           1         2         3
     Eigenvalues --    17.44725  79.55055  82.71052
           X            0.99927  -0.00001  -0.03813
           Y            0.00001   1.00000  -0.00001
           Z            0.03813   0.00001   0.99927
 This molecule is an asymmetric top.
 Rotational symmetry number  1.
 Rotational temperatures (Kelvin)      4.96433     1.08879     1.04719
 Rotational constants (GHZ):         103.43988    22.68672    21.81997
 Zero-point vibrational energy     167525.0 (Joules/Mol)
                                   40.03944 (Kcal/Mol)
 Warning -- explicit consideration of   1 degrees of freedom as
           vibrations may cause significant error
 Vibrational temperatures:    453.69  1222.76  1409.19  1518.91  1683.48
          (Kelvin)           1945.16  2102.13  2153.72  2185.37  2400.24
                             4241.85  4391.00  4441.77  5020.42  5127.52

 Zero-point correction=                           0.063807 (Hartree/Particle)
 Thermal correction to Energy=                    0.067221
 Thermal correction to Enthalpy=                  0.068165
 Thermal correction to Gibbs Free Energy=         0.040892
 Sum of electronic and zero-point Energies=            -95.824632
 Sum of electronic and thermal Energies=               -95.821218
 Sum of electronic and thermal Enthalpies=             -95.820274
 Sum of electronic and thermal Free Energies=          -95.847547

                     E (Thermal)             CV                S
                      KCal/Mol        Cal/Mol-Kelvin    Cal/Mol-Kelvin
 Total                   42.182              9.522             57.402
 Electronic               0.000              0.000              0.000
 Translational            0.889              2.981             36.231
 Rotational               0.889              2.981             19.379
 Vibrational             40.404              3.560              1.792
 Vibration     1          0.703              1.644              1.334

 Optimization completed.
    -- Stationary point found.
 Normal termination of Gaussian 09 at Sat Apr 30 16:37:29 2022.
