 Gaussian 09, Revision B.01,
 Gaussian 09:  EM64L-G09RevB.01 12-Aug-2010

 ----------------------------------------------------------------------
 #MaxDisk=2600gb #B3LyP/6-311g(2d,d,p) fopt freq gfinput iop(6/7=3) tes
 t
 ----------------------------------------------------------------------

 ----------------------
 prueba para metilamina
 ----------------------
 Symbolic Z-matrix:
 Charge =  0 Multiplicity = 1

 SCF Done:  E(RB3LYP) =  -95.8860224672     A.U. after   11 cycles
 SCF Done:  E(RB3LYP) =  -95.8883088577     A.U. after   11 cycles
 SCF Done:  E(RB3LYP) =  -95.8884366014     A.U. after    9 cycles
 SCF Done:  E(RB3LYP) =  -95.8884435309     A.U. after    7 cycles
 Optimization completed.
    -- Stationary point found.
 Normal termination of Gaussian 09 at Sun May  1 15:47:41 2022.

 ----------------------------------------------------------------------
 #N Geom=AllCheck Guess=TCheck SCRF=Check Test GenChk RB3LYP/6-311G(2d,
 d,p) Freq
 ----------------------------------------------------------------------

 prueba para metilamina
 ----------------------
 Redundant internal coordinates taken from checkpoint file:
 metilamina-v3.chk
 Charge =  0 Multiplicity = 1

                         Standard orientation:
 ---------------------------------------------------------------------
 Center     Atomic      Atomic             Coordinates (Angstroms)
 Number     Number       Type             X           Y           Z
 ---------------------------------------------------------------------
      1          1           0       -0.591839    1.065801    0.878590
      2          6           0       -0.050407    0.705128    0.000000
      3          1           0       -0.591839    1.065801   -0.878590
      4          1           0        0.943789    1.180127    0.000000
      5          7           0       -0.050407   -0.760472    0.000000
      6          1           0        0.447592   -1.109595   -0.812397
      7          1           0        0.447592   -1.109595    0.812397
 ---------------------------------------------------------------------

 SCF Done:  E(RB3LYP) =  -95.8884435309     A.U. after    1 cycles

 The electronic state is 1-A'.
 Alpha  occ. eigenvalues --  -14.28183 -10.18276  -0.87133  -0.65833  -0.48705
 Alpha  occ. eigenvalues --   -0.43796  -0.40098  -0.36741  -0.23421
 Alpha virt. eigenvalues --    0.04203   0.07868   0.09777   0.11793   0.13943
 Alpha virt. eigenvalues --    0.21450   0.30995   0.32995   0.37583   0.38017
 Alpha virt. eigenvalues --    0.48199   0.54465   0.58441   0.58640   0.63855

 Mulliken atomic charges:
              1
     1  H    0.109142
     2  C   -0.205199
     3  H    0.109142
     4  H    0.083931
     5  N   -0.471640
     6  H    0.187312
     7  H    0.187312
 Sum of Mulliken atomic charges =   0.00000

 Dipole moment (field-independent basis, Debye):
    X=              1.3321    Y=              0.3279    Z=              0.0000  Tot=              1.3719
 Quadrupole moment (field-independent basis, Debye-Ang):
   XX=            -14.8897   YY=            -14.2010   ZZ=            -12.6668
   XY=             -2.1263   XZ=              0.0000   YZ=              0.0000

  Exact polarizability:  18.879  -0.878  22.953   0.000   0.000  20.946
 Approx polarizability:  24.062  -0.800  27.445   0.000   0.000  27.554

                     1                      2                      3
                    A"                     A'                     A"
 Frequencies --   316.8425               850.0577               980.3938
 Red. masses --     1.0305                 1.2397                 1.0523
 Frc consts  --     0.0610                 0.5278                 0.5959
 IR Inten    --    38.8291               165.1698                 0.0126

                     4                      5                      6
                    A'                     A'                     A"
 Frequencies --  1057.5305              1171.3736              1352.7958
 Red. masses --     3.3949                 1.3979                 1.3451
 Frc consts  --     2.2370                 1.1301                 1.4504
 IR Inten    --     8.3972                 7.0242                 0.1966

                     7                      8                      9
                    A'                     A'                     A"
 Frequencies --  1461.8983              1497.1721              1519.2793
 Red. masses --     1.1584                 1.0558                 1.0332
 Frc consts  --     1.4586                 1.3944                 1.4052
 IR Inten    --     2.2737                 7.4905                 3.4080

                    10                     11                     12
                    A'                     A'                     A'
 Frequencies --  1668.5862              2946.6988              3051.3780
 Red. masses --     1.0837                 1.0607                 1.0723
 Frc consts  --     1.7777                 5.4262                 5.8823
 IR Inten    --    22.9020               104.0454                41.5738

                    13                     14                     15
                    A"                     A'                     A"
 Frequencies --  3086.8144              3490.8641              3565.4891
 Red. masses --     1.1029                 1.0491                 1.0930
 Frc consts  --     6.1919                 7.5325                 8.1865
 IR Inten    --    38.5545                 1.4893                 0.0897

 - Thermochemistry -
 -------------------
 Temperature   298.150 Kelvin.  Pressure   1.00000 Atm.
 Atom     1 has atomic number  1 and mass   1.00783

 Molecular mass:    31.04220 amu.
 Principal axes and moments of inertia in atomic units:
                           1         2         3
     Eigenvalues --    17.44183  79.49755  82.66954
           X           -0.05827   0.00000   0.99830
           Y            0.99830   0.00000   0.05827
           Z            0.00000   1.00000   0.00000
 This molecule is an asymmetric top.
 Rotational symmetry number  1.
 Rotational temperatures (Kelvin)      4.96587     1.08952     1.04771
 Rotational constants (GHZ):         103.47204    22.70185    21.83079
 Zero-point vibrational energy     167579.9 (Joules/Mol)
                                   40.05256 (Kcal/Mol)
 Warning -- explicit consideration of   1 degrees of freedom as
           vibrations may cause significant error
 Vibrational temperatures:    455.87  1223.04  1410.57  1521.55  1685.34
          (Kelvin)           1946.37  2103.34  2154.09  2185.90  2400.72
                             4239.64  4390.25  4441.23  5022.57  5129.94

 Zero-point correction=                           0.063828 (Hartree/Particle)
 Thermal correction to Energy=                    0.067240
 Thermal correction to Enthalpy=                  0.068184
 Thermal correction to Gibbs Free Energy=         0.040915
 Sum of electronic and zero-point Energies=            -95.824616
 Sum of electronic and thermal Energies=               -95.821204
 Sum of electronic and thermal Enthalpies=             -95.820260
 Sum of electronic and thermal Free Energies=          -95.847528

                     E (Thermal)             CV                S
                      KCal/Mol        Cal/Mol-Kelvin    Cal/Mol-Kelvin
 Total                   42.194              9.514             57.392
 Electronic               0.000              0.000              0.000
 Translational            0.889              2.981             36.231
 Rotational               0.889              2.981             19.378
 Vibrational             40.416              3.552              1.783
 Vibration     1          0.704              1.641              1.326

 Optimization completed.
    -- Stationary point found.
 Normal termination of Gaussian 09 at Sun May  1 15:47:45 2022.
