 Gaussian 09, Revision B.01,
 Gaussian 09:  EM64L-G09RevB.01 12-Aug-2010

 ----------------------------------------------------------------------
 #MaxDisk=2600gb #B3LyP/6-311g(2d,d,p) fopt freq gfinput iop(6/7=3) tes
 t
 ----------------------------------------------------------------------

 -------------------
 prueba para propano
 -------------------
 Symbolic Z-matrix:
 Charge =  0 Multiplicity = 1

 SCF Done:  E(RB3LYP) =  -119.174353431     A.U. after   11 cycles
 SCF Done:  E(RB3LYP) =  -119.180537649     A.U. after   10 cycles
 SCF Done:  E(RB3LYP) =  -119.180672857     A.U. after    8 cycles
 SCF Done:  E(RB3LYP) =  -119.180685991     A.U. after    6 cycles
 Optimization completed.
    -- Stationary point found.
 Normal termination of Gaussian 09 at Sat Apr 30 16:22:26 2022.

 ----------------------------------------------------------------------
 #N Geom=AllCheck Guess=TCheck SCRF=Check Test GenChk RB3LYP/6-311G(2d,
 d,p) Freq
 ----------------------------------------------------------------------

 prueba para propano
 -------------------
 Redundant internal coordinates taken from checkpoint file:
 propano.chk
 Charge =  0 Multiplicity = 1

                         Standard orientation:
 ---------------------------------------------------------------------
 Center     Atomic      Atomic             Coordinates (Angstroms)
 Number     Number       Type             X           Y           Z
 ---------------------------------------------------------------------
      1          6           0        0.000000    1.276774   -0.259936
      2          6           0        0.000000    0.000000    0.586366
      3          6           0        0.000000   -1.276774   -0.259936
      4          1           0       -0.883028    1.321261   -0.905475
      5          1           0        0.883028    1.321261   -0.905475
      6          1           0        0.000000    2.173196    0.366566
      7          1           0        0.875821    0.000000    1.244901
      8          1           0       -0.875821    0.000000    1.244901
      9          1           0        0.000000   -2.173196    0.366566
     10          1           0       -0.883028   -1.321261   -0.905475
     11          1           0        0.883028   -1.321261   -0.905475
 ---------------------------------------------------------------------

 SCF Done:  E(RB3LYP) =  -119.180685991     A.U. after    1 cycles

 The electronic state is 1-A1.
 Alpha  occ. eigenvalues --  -10.16480 -10.15594 -10.15593  -0.78059  -0.68155
 Alpha  occ. eigenvalues --   -0.58576  -0.45799  -0.43761  -0.39986  -0.38249
 Alpha  occ. eigenvalues --   -0.34021  -0.33888  -0.32985
 Alpha virt. eigenvalues --    0.04438   0.08262   0.08636   0.08820   0.11727
 Alpha virt. eigenvalues --    0.13591   0.13952   0.15088   0.19808   0.24513
 Alpha virt. eigenvalues --    0.28667   0.28911   0.31620   0.33853   0.34388

 Mulliken atomic charges:
              1
     1  C   -0.296464
     2  C   -0.238206
     3  C   -0.296464
     4  H    0.101622
     5  H    0.101622
     6  H    0.105882
     7  H    0.106440
     8  H    0.106440
     9  H    0.105882
    10  H    0.101622
    11  H    0.101622
 Sum of Mulliken atomic charges =   0.00000

 Dipole moment (field-independent basis, Debye):
    X=              0.0000    Y=              0.0000    Z=              0.0770  Tot=              0.0770
 Quadrupole moment (field-independent basis, Debye-Ang):
   XX=            -21.6495   YY=            -22.4040   ZZ=            -22.0773
   XY=              0.0000   XZ=              0.0000   YZ=              0.0000

  Exact polarizability:  34.675   0.000  40.579   0.000   0.000  36.070
 Approx polarizability:  48.132   0.000  48.009   0.000   0.000  48.009

                     1                      2                      3
                    A2                     B1                     A1
 Frequencies --   219.0231               269.0021               366.4517
 Red. masses --     1.0278                 1.1363                 2.0535
 Frc consts  --     0.0290                 0.0484                 0.1625
 IR Inten    --     0.0000                 0.0021                 0.0780

                     4                      5                      6
                    B1                     A1                     A2
 Frequencies --   754.6413               870.4144               914.2789
 Red. masses --     1.0797                 2.5936                 1.1019
 Frc consts  --     0.3623                 1.1577                 0.5427
 IR Inten    --     3.3000                 0.8564                 0.0000

                     7                      8                      9
                    B2                     B2                     A1
 Frequencies --   932.7379              1056.4740              1175.3268
 Red. masses --     1.2067                 2.4695                 1.7868
 Frc consts  --     0.6186                 1.6240                 1.4542
 IR Inten    --     1.8929                 0.9444                 1.3054

                    10                     11                     12
                    B1                     A2                     B2
 Frequencies --  1213.4727              1318.5579              1368.6600
 Red. masses --     1.6640                 1.1238                 1.4025
 Frc consts  --     1.4436                 1.1512                 1.5479
 IR Inten    --     0.1992                 0.0000                 2.6540

                    13                     14                     15
                    B2                     A1                     A2
 Frequencies --  1405.7152              1422.2500              1491.4355
 Red. masses --     1.2680                 1.2310                 1.0377
 Frc consts  --     1.4763                 1.4671                 1.3600
 IR Inten    --     5.1652                 3.0523                 0.0000

                    16                     17                     18
                    A1                     B2                     B1
 Frequencies --  1493.8133              1499.2216              1508.9472
 Red. masses --     1.0430                 1.0517                 1.0406
 Frc consts  --     1.3712                 1.3927                 1.3960
 IR Inten    --     0.0203                 2.2393                14.2320

                    19                     20                     21
                    A1                     B2                     A1
 Frequencies --  1515.0798              3015.2633              3015.6720
 Red. masses --     1.0813                 1.0349                 1.0588
 Frc consts  --     1.4624                 5.5438                 5.6732
 IR Inten    --     5.8066                37.2995                14.6801

                    22                     23                     24
                    A1                     B1                     A2
 Frequencies --  3019.1934              3036.4871              3072.5712
 Red. masses --     1.0369                 1.1018                 1.1022
 Frc consts  --     5.5688                 5.9854                 6.1306
 IR Inten    --    36.0781                 3.7453                 0.0000

                    25                     26                     27
                    B2                     B1                     A1
 Frequencies --  3082.0431              3084.5850              3084.9408
 Red. masses --     1.1017                 1.1029                 1.1002
 Frc consts  --     6.1659                 6.1828                 6.1691
 IR Inten    --    32.6791               112.5241                60.8216

 - Thermochemistry -
 -------------------
 Temperature   298.150 Kelvin.  Pressure   1.00000 Atm.
 Atom     1 has atomic number  6 and mass  12.00000

 Molecular mass:    44.06260 amu.
 Principal axes and moments of inertia in atomic units:
                           1         2         3
     Eigenvalues --    61.18408 215.58570 243.27684
           X            0.00000   0.00000   1.00000
           Y            1.00000   0.00000   0.00000
           Z            0.00000   1.00000   0.00000
 This molecule is an asymmetric top.
 Rotational symmetry number  2.
 Rotational temperatures (Kelvin)      1.41563     0.40176     0.35603
 Rotational constants (GHZ):          29.49691     8.37134     7.41847
 Zero-point vibrational energy     270393.5 (Joules/Mol)
                                   64.62559 (Kcal/Mol)
 Warning -- explicit consideration of   3 degrees of freedom as
           vibrations may cause significant error
 Vibrational temperatures:    315.12   387.03   527.24  1085.76  1252.33
          (Kelvin)           1315.44  1342.00  1520.03  1691.03  1745.91
                             1897.11  1969.19  2022.51  2046.30  2145.84
                             2149.26  2157.04  2171.04  2179.86  4338.29
                             4338.87  4343.94  4368.82  4420.74  4434.37
                             4438.02  4438.54

 Zero-point correction=                           0.102987 (Hartree/Particle)
 Thermal correction to Energy=                    0.107528
 Thermal correction to Enthalpy=                  0.108473
 Thermal correction to Gibbs Free Energy=         0.077966
 Sum of electronic and zero-point Energies=           -119.077699
 Sum of electronic and thermal Energies=              -119.073158
 Sum of electronic and thermal Enthalpies=            -119.072213
 Sum of electronic and thermal Free Energies=         -119.102720

                     E (Thermal)             CV                S
                      KCal/Mol        Cal/Mol-Kelvin    Cal/Mol-Kelvin
 Total                   67.475             14.823             64.207
 Electronic               0.000              0.000              0.000
 Translational            0.889              2.981             37.275
 Rotational               0.889              2.981             21.311
 Vibrational             65.698              8.861              5.621
 Vibration     1          0.647              1.812              1.967
 Vibration     2          0.673              1.730              1.603
 Vibration     3          0.739              1.541              1.095

 Optimization completed.
    -- Stationary point found.
 Normal termination of Gaussian 09 at Sat Apr 30 16:22:36 2022.
